 vasp.5.4.4.18Apr17-6-g9f103f2a35 (build Sep 11 2017 17:27:03) complex          
  
 executed on      GRP7IFC17NORMAL date 2019.03.25  17:08:26
 running on    8 total cores
 distrk:  each k-point on    8 cores,    1 groups
 distr:  one band on NCORES_PER_BAND=   1 cores,    8 groups


--------------------------------------------------------------------------------------------------------


 INCAR:
 POTCAR:    PAW_PBE Cu_pv 06Sep2000               
 POTCAR:    PAW_PBE I 08Apr2002                   

 ----------------------------------------------------------------------------- 
|                                                                             |
|           W    W    AA    RRRRR   N    N  II  N    N   GGGG   !!!           |
|           W    W   A  A   R    R  NN   N  II  NN   N  G    G  !!!           |
|           W    W  A    A  R    R  N N  N  II  N N  N  G       !!!           |
|           W WW W  AAAAAA  RRRRR   N  N N  II  N  N N  G  GGG   !            |
|           WW  WW  A    A  R   R   N   NN  II  N   NN  G    G                |
|           W    W  A    A  R    R  N    N  II  N    N   GGGG   !!!           |
|                                                                             |
|      For optimal performance we recommend to set                            |
|        NCORE= 4 - approx SQRT( number of cores)                             |
|      NCORE specifies how many cores store one orbital (NPAR=cpu/NCORE).     |
|      This setting can  greatly improve the performance of VASP for DFT.     |
|      The default,   NCORE=1            might be grossly inefficient         |
|      on modern multi-core architectures or massively parallel machines.     |
|      Do your own testing !!!!                                               |
|      Unfortunately you need to use the default for GW and RPA calculations. |
|      (for HF NCORE is supported but not extensively tested yet)             |
|                                                                             |
 ----------------------------------------------------------------------------- 


 ----------------------------------------------------------------------------- 
|                                                                             |
|  ADVICE TO THIS USER RUNNING 'VASP/VAMP'   (HEAR YOUR MASTER'S VOICE ...):  |
|                                                                             |
|      You have switched on vdW-DFT.                                          |
|      This routine was written and supplied by Jiri Klimes.                  |
|      We recommed that you carefully read and cite the following             |
|      publication                                                            |
|      J. Klimes, D.R. Bowler, A. Michelides                                  |
|        J. Phys.: Cond Matt. 22 022201 (2010)                                |
|      J. Klimes, D.R. Bowler, A. Michelides                                  |
|        Phys. Rev. B. 83, 195131 (2011)                                      |
|      and references therein.                                                |
|                                                                             |
 ----------------------------------------------------------------------------- 

 POTCAR:    PAW_PBE Cu_pv 06Sep2000               
   VRHFIN =Cu: d10 p1                                                           
   LEXCH  = PE                                                                  
   EATOM  =  4120.1201 eV,  302.8203 Ry                                         
                                                                                
   TITEL  = PAW_PBE Cu_pv 06Sep2000                                             
   LULTRA =        F    use ultrasoft PP ?                                      
   IUNSCR =        1    unscreen: 0-lin 1-nonlin 2-no                           
   RPACOR =    1.500    partial core radius                                     
   POMASS =   63.546; ZVAL   =   17.000    mass and valenz                      
   RCORE  =    2.000    outmost cutoff radius                                   
   RWIGS  =    2.000; RWIGS  =    1.058    wigner-seitz radius (au A)           
   ENMAX  =  368.648; ENMIN  =  276.486 eV                                      
   RCLOC  =    1.304    cutoff for local pot                                    
   LCOR   =        T    correct aug charges                                     
   LPAW   =        T    paw PP                                                  
   EAUG   =  758.233                                                            
   DEXC   =    0.000                                                            
   RMAX   =    2.046    core radius for proj-oper                               
   RAUG   =    1.300    factor for augmentation sphere                          
   RDEP   =    2.025    radius for radial grids                                 
   RDEPT  =    1.558    core radius for aug-charge                              
                                                                                
   Atomic configuration                                                         
    8 entries                                                                   
     n  l   j            E        occ.                                          
     1  0  0.50     -8850.2467   2.0000                                         
     2  0  0.50     -1062.3498   2.0000                                         
     2  1  1.50      -916.8226   6.0000                                         
     3  0  0.50      -114.6929   2.0000                                         
     3  1  1.50       -72.1325   6.0000                                         
     3  2  2.50        -5.0394  10.0000                                         
     4  0  0.50        -4.6097   1.0000                                         
     4  3  2.50        -1.3606   0.0000                                         
   Description                                                                  
     l       E           TYP  RCUT    TYP  RCUT                                 
     1    -72.1324777     23  1.700                                             
     1     -1.3605826     23  1.700                                             
     2     -5.0393776     23  2.000                                             
     2     -6.3999602     23  2.000                                             
     0     -4.6097062     23  1.800                                             
     0     14.1620818     23  1.800                                             
  local pseudopotential read in
  partial core-charges read in
  partial kinetic energy density read in
  atomic valenz-charges read in
  non local Contribution for L=           1  read in
    real space projection operators read in
  non local Contribution for L=           1  read in
    real space projection operators read in
  non local Contribution for L=           2  read in
    real space projection operators read in
  non local Contribution for L=           2  read in
    real space projection operators read in
  non local Contribution for L=           0  read in
    real space projection operators read in
  non local Contribution for L=           0  read in
    real space projection operators read in
    PAW grid and wavefunctions read in
 
   number of l-projection  operators is LMAX  =           6
   number of lm-projection operators is LMMAX =          18
 
 POTCAR:    PAW_PBE I 08Apr2002                   
   VRHFIN =I : s2p5                                                             
   LEXCH  = PE                                                                  
   EATOM  =   315.8678 eV,   23.2156 Ry                                         
                                                                                
   TITEL  = PAW_PBE I 08Apr2002                                                 
   LULTRA =        F    use ultrasoft PP ?                                      
   IUNSCR =        1    unscreen: 0-lin 1-nonlin 2-no                           
   RPACOR =    2.200    partial core radius                                     
   POMASS =  126.904; ZVAL   =    7.000    mass and valenz                      
   RCORE  =    2.300    outmost cutoff radius                                   
   RWIGS  =    2.810; RWIGS  =    1.487    wigner-seitz radius (au A)           
   ENMAX  =  175.647; ENMIN  =  131.735 eV                                      
   ICORE  =        3    local potential                                         
   LCOR   =        T    correct aug charges                                     
   LPAW   =        T    paw PP                                                  
   EAUG   =  370.139                                                            
   DEXC   =    0.000                                                            
   RMAX   =    2.359    core radius for proj-oper                               
   RAUG   =    1.300    factor for augmentation sphere                          
   RDEP   =    2.392    radius for radial grids                                 
   RDEPT  =    2.170    core radius for aug-charge                              
                                                                                
   Atomic configuration                                                         
   13 entries                                                                   
     n  l   j            E        occ.                                          
     1  0  0.50    -32976.3739   2.0000                                         
     2  0  0.50     -5094.5933   2.0000                                         
     2  1  1.50     -4572.0131   6.0000                                         
     3  0  0.50     -1028.2813   2.0000                                         
     3  1  1.50      -859.0250   6.0000                                         
     3  2  2.50      -605.7620  10.0000                                         
     4  0  0.50      -180.5540   2.0000                                         
     4  1  1.50      -127.5306   6.0000                                         
     4  2  2.50       -50.2720  10.0000                                         
     5  0  0.50       -17.4058   2.0000                                         
     5  1  0.50        -7.0851   5.0000                                         
     5  2  1.50        -7.0750   0.0000                                         
     4  3  2.50        -7.0750   0.0000                                         
   Description                                                                  
     l       E           TYP  RCUT    TYP  RCUT                                 
     0    -17.4058016     23  2.300                                             
     0    -18.7663842     23  2.300                                             
     1     -7.0850686     23  2.300                                             
     1     -4.2150896     23  2.300                                             
     2     -7.0750295     23  2.300                                             
     3     -1.3605826     23  2.300                                             
  local pseudopotential read in
  partial core-charges read in
  partial kinetic energy density read in
  atomic valenz-charges read in
  non local Contribution for L=           0  read in
    real space projection operators read in
  non local Contribution for L=           0  read in
    real space projection operators read in
  non local Contribution for L=           1  read in
    real space projection operators read in
  non local Contribution for L=           1  read in
    real space projection operators read in
  non local Contribution for L=           2  read in
    real space projection operators read in
    PAW grid and wavefunctions read in
 
   number of l-projection  operators is LMAX  =           5
   number of lm-projection operators is LMMAX =          13
 

 ----------------------------------------------------------------------------- 
|                                                                             |
|  ADVICE TO THIS USER RUNNING 'VASP/VAMP'   (HEAR YOUR MASTER'S VOICE ...):  |
|                                                                             |
|      You enforced a specific xc-type in the INCAR file,                     |
|      a different type was found on the POTCAR file                          |
|          I HOPE YOU KNOW, WHAT YOU ARE  DOING                               |
|                                                                             |
 ----------------------------------------------------------------------------- 

  PAW_PBE Cu_pv 06Sep2000               :
 energy of atom  1       EATOM=-4120.1201
 kinetic energy error for atom=    0.0655 (will be added to EATOM!!)
  PAW_PBE I 08Apr2002                   :
 energy of atom  2       EATOM= -315.8678
 kinetic energy error for atom=    0.0009 (will be added to EATOM!!)
 
 
 POSCAR: Cu  I                                   
  positions in direct lattice
  velocities in cartesian coordinates
 exchange correlation table for  LEXCH =       43
   RHO(1)=    0.500       N(1)  =     2000
   RHO(2)=  100.500       N(2)  =     4000
 


--------------------------------------------------------------------------------------------------------


 ion  position               nearest neighbor table
   1  0.000  0.000  0.000-   3 2.53   2 2.53   2 2.53   3 2.53   3 2.53   2 2.53   5 2.53   4 2.53
                             6 2.53
   2  0.333  0.333  0.000-   3 2.53   1 2.53   1 2.53   3 2.53   3 2.53   1 2.53   4 2.53   6 2.53
                             5 2.53
   3  0.667  0.667  0.000-   1 2.53   2 2.53   2 2.53   1 2.53   2 2.53   1 2.53   6 2.53   5 2.53
                             4 2.53
   4  0.333  0.000  0.077-   8 2.52   6 2.53   5 2.53   5 2.53   6 2.53   5 2.53   6 2.53   2 2.53
                             1 2.53   3 2.53
   5  0.667  0.333  0.077-   8 2.53   6 2.53   4 2.53   4 2.53   6 2.53   6 2.53   4 2.53   1 2.53
                             3 2.53   2 2.53
   6  0.000  0.667  0.077-   8 2.52   4 2.53   5 2.53   4 2.53   5 2.53   5 2.53   4 2.53   3 2.53
                             2 2.53   1 2.53
   7  0.668  0.000  0.154-  11 2.52  12 2.52  10 2.52   9 2.53   9 2.53   8 2.53   8 2.53   8 2.53
                             9 2.53
   8  0.001  0.333  0.153-   4 2.52   6 2.52   5 2.53   9 2.53   7 2.53   7 2.53   9 2.53   9 2.53
                             7 2.53
   9  0.334  0.667  0.154-  11 2.52  10 2.52  12 2.52   7 2.53   7 2.53   8 2.53   8 2.53   8 2.53
                             7 2.53
  10  0.001  0.997  0.230-   9 2.52   7 2.52  12 2.52  11 2.52  11 2.52  12 2.52  15 2.69
  11  0.338  0.333  0.230-   9 2.52   7 2.52  10 2.52  10 2.52  12 2.52  12 2.52  15 2.69
  12  0.665  0.670  0.230-   7 2.52   9 2.52  10 2.52  11 2.52  11 2.52  10 2.52  15 2.69
  13  1.000  0.333  0.417-  14 2.59  14 2.59  14 2.59  15 2.79
  14  0.667  0.000  0.437-  13 2.59  13 2.59  13 2.59
  15  0.001  0.333  0.313-  12 2.69  10 2.69  11 2.69  13 2.79
 
  LATTYP: Found a hexagonal cell.
 ALAT       =     4.3881354332
 C/A-ratio  =     6.1529550332
  
  Lattice vectors:
  
 A1 = (   2.1940677166,  -3.8002367604,   0.0000000000)
 A2 = (  -4.3881354332,   0.0000000000,   0.0000000000)
 A3 = (   0.0000000000,   0.0000000000, -27.0000000000)


Analysis of symmetry for initial positions (statically):
=====================================================================
 Subroutine PRICEL returns:
 Original cell was already a primitive cell.
 

 Routine SETGRP: Setting up the symmetry group for a 
 hexagonal supercell.


 Subroutine GETGRP returns: Found  1 space group operations
 (whereof  1 operations were pure point group operations)
 out of a pool of 24 trial point group operations.


The static configuration has the point symmetry C_1 .


Analysis of symmetry for dynamics (positions and initial velocities):
=====================================================================
 Subroutine PRICEL returns:
 Original cell was already a primitive cell.
 

 Routine SETGRP: Setting up the symmetry group for a 
 hexagonal supercell.


 Subroutine GETGRP returns: Found  1 space group operations
 (whereof  1 operations were pure point group operations)
 out of a pool of 24 trial point group operations.


The dynamic configuration has the point symmetry C_1 .


Analysis of constrained symmetry for selective dynamics:
=====================================================================
 Subroutine PRICEL returns:
 Original cell was already a primitive cell.
 

 Routine SETGRP: Setting up the symmetry group for a 
 hexagonal supercell.


 Subroutine GETGRP returns: Found  1 space group operations
 (whereof  1 operations were pure point group operations)
 out of a pool of 24 trial point group operations.


The constrained configuration has the point symmetry C_1 .


 Subroutine INISYM returns: Found  1 space group operations
 (whereof  1 operations are pure point group operations),
 and found     1 'primitive' translations

 
 
 KPOINTS: A                                       

Automatic generation of k-mesh.
Space group operators:
 irot       det(A)        alpha          n_x          n_y          n_z        tau_x        tau_y        tau_z
    1     1.000000     0.000001     1.000000     0.000000     0.000000     0.000000     0.000000     0.000000
 
 Subroutine IBZKPT returns following result:
 ===========================================
 
 Found     74 irreducible k-points:
 
 Following reciprocal coordinates:
            Coordinates               Weight
  0.000000  0.000000  0.000000      1.000000
  0.083333 -0.000000  0.000000      2.000000
  0.166667  0.000000  0.000000      2.000000
  0.250000 -0.000000  0.000000      2.000000
  0.333333  0.000000  0.000000      2.000000
  0.416667 -0.000000  0.000000      2.000000
  0.500000 -0.000000  0.000000      1.000000
  0.000000  0.083333  0.000000      2.000000
  0.083333  0.083333  0.000000      2.000000
  0.166667  0.083333  0.000000      2.000000
  0.250000  0.083333  0.000000      2.000000
  0.333333  0.083333  0.000000      2.000000
  0.416667  0.083333  0.000000      2.000000
  0.500000  0.083333  0.000000      2.000000
 -0.416667  0.083333  0.000000      2.000000
 -0.333333  0.083333  0.000000      2.000000
 -0.250000  0.083333  0.000000      2.000000
 -0.166667  0.083333  0.000000      2.000000
 -0.083333  0.083333  0.000000      2.000000
  0.000000  0.166667  0.000000      2.000000
  0.083333  0.166667  0.000000      2.000000
  0.166667  0.166667  0.000000      2.000000
  0.250000  0.166667  0.000000      2.000000
  0.333333  0.166667  0.000000      2.000000
  0.416667  0.166667  0.000000      2.000000
  0.500000  0.166667  0.000000      2.000000
 -0.416667  0.166667  0.000000      2.000000
 -0.333333  0.166667  0.000000      2.000000
 -0.250000  0.166667  0.000000      2.000000
 -0.166667  0.166667  0.000000      2.000000
 -0.083333  0.166667  0.000000      2.000000
  0.000000  0.250000  0.000000      2.000000
  0.083333  0.250000  0.000000      2.000000
  0.166667  0.250000  0.000000      2.000000
  0.250000  0.250000  0.000000      2.000000
  0.333333  0.250000  0.000000      2.000000
  0.416667  0.250000  0.000000      2.000000
  0.500000  0.250000  0.000000      2.000000
 -0.416667  0.250000  0.000000      2.000000
 -0.333333  0.250000  0.000000      2.000000
 -0.250000  0.250000  0.000000      2.000000
 -0.166667  0.250000  0.000000      2.000000
 -0.083333  0.250000  0.000000      2.000000
  0.000000  0.333333  0.000000      2.000000
  0.083333  0.333333  0.000000      2.000000
  0.166667  0.333333  0.000000      2.000000
  0.250000  0.333333  0.000000      2.000000
  0.333333  0.333333  0.000000      2.000000
  0.416667  0.333333  0.000000      2.000000
  0.500000  0.333333  0.000000      2.000000
 -0.416667  0.333333  0.000000      2.000000
 -0.333333  0.333333  0.000000      2.000000
 -0.250000  0.333333  0.000000      2.000000
 -0.166667  0.333333  0.000000      2.000000
 -0.083333  0.333333  0.000000      2.000000
  0.000000  0.416667  0.000000      2.000000
  0.083333  0.416667  0.000000      2.000000
  0.166667  0.416667  0.000000      2.000000
  0.250000  0.416667  0.000000      2.000000
  0.333333  0.416667  0.000000      2.000000
  0.416667  0.416667  0.000000      2.000000
  0.500000  0.416667  0.000000      2.000000
 -0.416667  0.416667  0.000000      2.000000
 -0.333333  0.416667  0.000000      2.000000
 -0.250000  0.416667  0.000000      2.000000
 -0.166667  0.416667  0.000000      2.000000
 -0.083333  0.416667  0.000000      2.000000
  0.000000  0.500000  0.000000      1.000000
  0.083333  0.500000  0.000000      2.000000
  0.166667  0.500000  0.000000      2.000000
  0.250000  0.500000  0.000000      2.000000
  0.333333  0.500000  0.000000      2.000000
  0.416667  0.500000  0.000000      2.000000
  0.500000  0.500000  0.000000      1.000000
 
 Following cartesian coordinates:
            Coordinates               Weight
  0.000000  0.000000  0.000000      1.000000
  0.018991 -0.010964  0.000000      2.000000
  0.037981 -0.021928  0.000000      2.000000
  0.056972 -0.032893  0.000000      2.000000
  0.075962 -0.043857  0.000000      2.000000
  0.094953 -0.054821  0.000000      2.000000
  0.113944 -0.065785  0.000000      1.000000
  0.000000  0.021928  0.000000      2.000000
  0.018991  0.010964  0.000000      2.000000
  0.037981 -0.000000  0.000000      2.000000
  0.056972 -0.010964  0.000000      2.000000
  0.075962 -0.021928  0.000000      2.000000
  0.094953 -0.032893  0.000000      2.000000
  0.113944 -0.043857  0.000000      2.000000
 -0.094953  0.076750  0.000000      2.000000
 -0.075962  0.065785  0.000000      2.000000
 -0.056972  0.054821  0.000000      2.000000
 -0.037981  0.043857  0.000000      2.000000
 -0.018991  0.032893  0.000000      2.000000
  0.000000  0.043857  0.000000      2.000000
  0.018991  0.032893  0.000000      2.000000
  0.037981  0.021928  0.000000      2.000000
  0.056972  0.010964  0.000000      2.000000
  0.075962  0.000000  0.000000      2.000000
  0.094953 -0.010964  0.000000      2.000000
  0.113944 -0.021928  0.000000      2.000000
 -0.094953  0.098678  0.000000      2.000000
 -0.075962  0.087714  0.000000      2.000000
 -0.056972  0.076750  0.000000      2.000000
 -0.037981  0.065785  0.000000      2.000000
 -0.018991  0.054821  0.000000      2.000000
  0.000000  0.065785  0.000000      2.000000
  0.018991  0.054821  0.000000      2.000000
  0.037981  0.043857  0.000000      2.000000
  0.056972  0.032893  0.000000      2.000000
  0.075962  0.021928  0.000000      2.000000
  0.094953  0.010964  0.000000      2.000000
  0.113944  0.000000  0.000000      2.000000
 -0.094953  0.120607  0.000000      2.000000
 -0.075962  0.109642  0.000000      2.000000
 -0.056972  0.098678  0.000000      2.000000
 -0.037981  0.087714  0.000000      2.000000
 -0.018991  0.076750  0.000000      2.000000
  0.000000  0.087714  0.000000      2.000000
  0.018991  0.076750  0.000000      2.000000
  0.037981  0.065785  0.000000      2.000000
  0.056972  0.054821  0.000000      2.000000
  0.075962  0.043857  0.000000      2.000000
  0.094953  0.032893  0.000000      2.000000
  0.113944  0.021928  0.000000      2.000000
 -0.094953  0.142535  0.000000      2.000000
 -0.075962  0.131571  0.000000      2.000000
 -0.056972  0.120607  0.000000      2.000000
 -0.037981  0.109642  0.000000      2.000000
 -0.018991  0.098678  0.000000      2.000000
  0.000000  0.109642  0.000000      2.000000
  0.018991  0.098678  0.000000      2.000000
  0.037981  0.087714  0.000000      2.000000
  0.056972  0.076750  0.000000      2.000000
  0.075962  0.065785  0.000000      2.000000
  0.094953  0.054821  0.000000      2.000000
  0.113944  0.043857  0.000000      2.000000
 -0.094953  0.164463  0.000000      2.000000
 -0.075962  0.153499  0.000000      2.000000
 -0.056972  0.142535  0.000000      2.000000
 -0.037981  0.131571  0.000000      2.000000
 -0.018991  0.120607  0.000000      2.000000
  0.000000  0.131571  0.000000      1.000000
  0.018991  0.120607  0.000000      2.000000
  0.037981  0.109642  0.000000      2.000000
  0.056972  0.098678  0.000000      2.000000
  0.075962  0.087714  0.000000      2.000000
  0.094953  0.076750  0.000000      2.000000
  0.113944  0.065785  0.000000      1.000000
 


--------------------------------------------------------------------------------------------------------




 Dimension of arrays:
   k-points           NKPTS =     74   k-points in BZ     NKDIM =     74   number of bands    NBANDS=    144
   number of dos      NEDOS =    301   number of ions     NIONS =     15
   non local maximal  LDIM  =      6   non local SUM 2l+1 LMDIM =     18
   total plane-waves  NPLWV = 204800
   max r-space proj   IRMAX =      1   max aug-charges    IRDMAX= 210667
   dimension x,y,z NGX =    32 NGY =   32 NGZ =  200
   dimension x,y,z NGXF=    64 NGYF=   64 NGZF=  400
   support grid    NGXF=   128 NGYF=  128 NGZF=  800
   ions per type =              13   2
   NGX,Y,Z   is equivalent  to a cutoff of  12.12, 12.12, 12.31 a.u.
   NGXF,Y,Z  is equivalent  to a cutoff of  24.25, 24.25, 24.63 a.u.

 SYSTEM =  unknown system                          
 POSCAR =  Cu  I                                   

 Startparameter for this run:
   NWRITE =      2    write-flag & timer
   PREC   = accura    normal or accurate (medium, high low for compatibility)
   ISTART =      0    job   : 0-new  1-cont  2-samecut
   ICHARG =     11    charge: 1-file 2-atom 10-const
   ISPIN  =      1    spin polarized calculation?
   LNONCOLLINEAR =      F non collinear calculations
   LSORBIT =      F    spin-orbit coupling
   INIWAV =      1    electr: 0-lowe 1-rand  2-diag
   LASPH  =      T    aspherical Exc in radial PAW
   METAGGA=      F    non-selfconsistent MetaGGA calc.

 Electronic Relaxation 1
   ENCUT  =  500.0 eV  36.75 Ry    6.06 a.u.   8.00  8.00 49.23*2*pi/ulx,y,z
   ENINI  =  500.0     initial cutoff
   ENAUG  =  758.2 eV  augmentation charge cutoff
   NELM   =     60;   NELMIN= 10; NELMDL= -5     # of ELM steps 
   EDIFF  = 0.1E-04   stopping-criterion for ELM
   LREAL  =      F    real-space projection
   NLSPLINE    = F    spline interpolate recip. space projectors
   LCOMPAT=      F    compatible to vasp.4.4
   GGA_COMPAT  = T    GGA compatible to vasp.4.4-vasp.4.6
   LMAXPAW     = -100 max onsite density
   LMAXMIX     =    2 max onsite mixed and CHGCAR
   VOSKOWN=      0    Vosko Wilk Nusair interpolation
   ROPT   =    0.00000   0.00000
 Ionic relaxation
   EDIFFG = 0.1E-03   stopping-criterion for IOM
   NSW    =      0    number of steps for IOM
   NBLOCK =      1;   KBLOCK =      1    inner block; outer block 
   IBRION =     -1    ionic relax: 0-MD 1-quasi-New 2-CG
   NFREE  =      0    steps in history (QN), initial steepest desc. (CG)
   ISIF   =      2    stress and relaxation
   IWAVPR =     10    prediction:  0-non 1-charg 2-wave 3-comb
   ISYM   =      2    0-nonsym 1-usesym 2-fastsym
   LCORR  =      T    Harris-Foulkes like correction to forces

   POTIM  = 0.5000    time-step for ionic-motion
   TEIN   =    0.0    initial temperature
   TEBEG  =    0.0;   TEEND  =   0.0 temperature during run
   SMASS  =  -3.00    Nose mass-parameter (am)
   estimated Nose-frequenzy (Omega)   =  0.10E-29 period in steps =****** mass=  -0.440E-27a.u.
   SCALEE = 1.0000    scale energy and forces
   NPACO  =    256;   APACO  = 16.0  distance and # of slots for P.C.
   PSTRESS=    0.0 pullay stress

  Mass of Ions in am
   POMASS =  63.55126.90
  Ionic Valenz
   ZVAL   =  17.00  7.00
  Atomic Wigner-Seitz radii
   RWIGS  =  -1.00 -1.00
  virtual crystal weights 
   VCA    =   1.00  1.00
   NELECT =     235.0000    total number of electrons
   NUPDOWN=      -1.0000    fix difference up-down

 DOS related values:
   EMIN   =  10.00;   EMAX   =-10.00  energy-range for DOS
   EFERMI =   0.00
   ISMEAR =     0;   SIGMA  =   0.10  broadening in eV -4-tet -1-fermi 0-gaus

 Electronic relaxation 2 (details)
   IALGO  =     38    algorithm
   LDIAG  =      T    sub-space diagonalisation (order eigenvalues)
   LSUBROT=      F    optimize rotation matrix (better conditioning)
   TURBO    =      0    0=normal 1=particle mesh
   IRESTART =      0    0=no restart 2=restart with 2 vectors
   NREBOOT  =      0    no. of reboots
   NMIN     =      0    reboot dimension
   EREF     =   0.00    reference energy to select bands
   IMIX   =      4    mixing-type and parameters
     AMIX     =   0.40;   BMIX     =  1.00
     AMIX_MAG =   1.60;   BMIX_MAG =  1.00
     AMIN     =   0.10
     WC   =   100.;   INIMIX=   1;  MIXPRE=   1;  MAXMIX= -45

 Intra band minimization:
   WEIMIN = 0.0000     energy-eigenvalue tresh-hold
   EBREAK =  0.17E-07  absolut break condition
   DEPER  =   0.30     relativ break condition  

   TIME   =   0.40     timestep for ELM

  volume/ion in A,a.u.               =      30.02       202.56
  Fermi-wavevector in a.u.,A,eV,Ry     =   1.318093  2.490834 23.638333  1.737368
  Thomas-Fermi vector in A             =   2.448087
 
 Write flags
   LWAVE        =      F    write WAVECAR
   LDOWNSAMPLE  =      F    k-point downsampling of WAVECAR
   LCHARG       =      F    write CHGCAR
   LVTOT        =      F    write LOCPOT, total local potential
   LVHAR        =      T    write LOCPOT, Hartree potential only
   LELF         =      F    write electronic localiz. function (ELF)
   LORBIT       =     10    0 simple, 1 ext, 2 COOP (PROOUT), +10 PAW based schemes


 Dipole corrections
   LMONO  =      F    monopole corrections only (constant potential shift)
   LDIPOL =      F    correct potential (dipole corrections)
   IDIPOL =      3    1-x, 2-y, 3-z, 4-all directions 
   EPSILON=  1.0000000 bulk dielectric constant

 Exchange correlation treatment:
   GGA     =    MK    GGA type
   LEXCH   =    43    internal setting for exchange type
   VOSKOWN=      0    Vosko Wilk Nusair interpolation
   LHFCALC =     F    Hartree Fock is set to
   LHFONE  =     F    Hartree Fock one center treatment
   AEXX    =    0.0000 exact exchange contribution

 vdW DFT:
   LUSE_VDW   =     T    switch on vdW DFT
   Zab_VDW    =-.8491    correlation parameter
   PARAM1     =0.1234
   PARAM2     =1.0000
   PARAM3     =0.0000
   -- rVV10 --
   BPARAM     = 6.3000
   CPARAM     = 0.0093

 Linear response parameters
   LEPSILON=     F    determine dielectric tensor
   LRPA    =     F    only Hartree local field effects (RPA)
   LNABLA  =     F    use nabla operator in PAW spheres
   LVEL    =     F    velocity operator in full k-point grid
   LINTERFAST=   F  fast interpolation
   KINTER  =     0    interpolate to denser k-point grid
   CSHIFT  =0.1000    complex shift for real part using Kramers Kronig
   OMEGAMAX=  -1.0    maximum frequency
   DEG_THRESHOLD= 0.2000000E-02 threshold for treating states as degnerate
   RTIME   =   -0.100 relaxation time in fs
  (WPLASMAI=    0.000 imaginary part of plasma frequency in eV, 0.658/RTIME)
   DFIELD  = 0.0000000 0.0000000 0.0000000 field for delta impulse in time
 
 Orbital magnetization related:
   ORBITALMAG=     F  switch on orbital magnetization
   LCHIMAG   =     F  perturbation theory with respect to B field
   DQ        =  0.001000  dq finite difference perturbation B field
   LLRAUG    =     F  two centre corrections for induced B field



--------------------------------------------------------------------------------------------------------


 Static calculation
 charge density and potential remain constant during run
 non-spin polarized calculation
 Variant of blocked Davidson
 Davidson routine will perform the subspace rotation
 perform sub-space diagonalisation
    after iterative eigenvector-optimisation
 no mixing
 using additional bands           26
 reciprocal scheme for non local part
 use partial core corrections
 calculate Harris-corrections to forces 
   (improved forces if not selfconsistent)
 use gradient corrections 
 WARNING: stress and forces are not correct
  (second derivative of E(xc) not defined)
 use of overlap-Matrix (Vanderbilt PP)
 Gauss-broadening in eV      SIGMA  =   0.10


--------------------------------------------------------------------------------------------------------


  energy-cutoff  :      500.00
  volume of cell :      450.25
      direct lattice vectors                 reciprocal lattice vectors
     4.388135433  0.000000000  0.000000000     0.227887223 -0.131570750  0.000000000
     2.194067717  3.800236760  0.000000000     0.000000000  0.263141500  0.000000000
     0.000000000  0.000000000 27.000000000     0.000000000  0.000000000  0.037037037

  length of vectors
     4.388135433  4.388135433 27.000000000     0.263141500  0.263141500  0.037037037


 
 k-points in units of 2pi/SCALE and weight: A                                       
   0.00000000  0.00000000  0.00000000       0.007
   0.01899060 -0.01096423  0.00000000       0.014
   0.03798120 -0.02192846  0.00000000       0.014
   0.05697181 -0.03289269  0.00000000       0.014
   0.07596241 -0.04385692  0.00000000       0.014
   0.09495301 -0.05482115  0.00000000       0.014
   0.11394361 -0.06578537  0.00000000       0.007
   0.00000000  0.02192846  0.00000000       0.014
   0.01899060  0.01096423  0.00000000       0.014
   0.03798120 -0.00000000  0.00000000       0.014
   0.05697181 -0.01096423  0.00000000       0.014
   0.07596241 -0.02192846  0.00000000       0.014
   0.09495301 -0.03289269  0.00000000       0.014
   0.11394361 -0.04385692  0.00000000       0.014
  -0.09495301  0.07674960  0.00000000       0.014
  -0.07596241  0.06578537  0.00000000       0.014
  -0.05697181  0.05482115  0.00000000       0.014
  -0.03798120  0.04385692  0.00000000       0.014
  -0.01899060  0.03289269  0.00000000       0.014
   0.00000000  0.04385692  0.00000000       0.014
   0.01899060  0.03289269  0.00000000       0.014
   0.03798120  0.02192846  0.00000000       0.014
   0.05697181  0.01096423  0.00000000       0.014
   0.07596241  0.00000000  0.00000000       0.014
   0.09495301 -0.01096423  0.00000000       0.014
   0.11394361 -0.02192846  0.00000000       0.014
  -0.09495301  0.09867806  0.00000000       0.014
  -0.07596241  0.08771383  0.00000000       0.014
  -0.05697181  0.07674960  0.00000000       0.014
  -0.03798120  0.06578537  0.00000000       0.014
  -0.01899060  0.05482115  0.00000000       0.014
   0.00000000  0.06578537  0.00000000       0.014
   0.01899060  0.05482115  0.00000000       0.014
   0.03798120  0.04385692  0.00000000       0.014
   0.05697181  0.03289269  0.00000000       0.014
   0.07596241  0.02192846  0.00000000       0.014
   0.09495301  0.01096423  0.00000000       0.014
   0.11394361  0.00000000  0.00000000       0.014
  -0.09495301  0.12060652  0.00000000       0.014
  -0.07596241  0.10964229  0.00000000       0.014
  -0.05697181  0.09867806  0.00000000       0.014
  -0.03798120  0.08771383  0.00000000       0.014
  -0.01899060  0.07674960  0.00000000       0.014
   0.00000000  0.08771383  0.00000000       0.014
   0.01899060  0.07674960  0.00000000       0.014
   0.03798120  0.06578537  0.00000000       0.014
   0.05697181  0.05482115  0.00000000       0.014
   0.07596241  0.04385692  0.00000000       0.014
   0.09495301  0.03289269  0.00000000       0.014
   0.11394361  0.02192846  0.00000000       0.014
  -0.09495301  0.14253498  0.00000000       0.014
  -0.07596241  0.13157075  0.00000000       0.014
  -0.05697181  0.12060652  0.00000000       0.014
  -0.03798120  0.10964229  0.00000000       0.014
  -0.01899060  0.09867806  0.00000000       0.014
   0.00000000  0.10964229  0.00000000       0.014
   0.01899060  0.09867806  0.00000000       0.014
   0.03798120  0.08771383  0.00000000       0.014
   0.05697181  0.07674960  0.00000000       0.014
   0.07596241  0.06578537  0.00000000       0.014
   0.09495301  0.05482115  0.00000000       0.014
   0.11394361  0.04385692  0.00000000       0.014
  -0.09495301  0.16446344  0.00000000       0.014
  -0.07596241  0.15349921  0.00000000       0.014
  -0.05697181  0.14253498  0.00000000       0.014
  -0.03798120  0.13157075  0.00000000       0.014
  -0.01899060  0.12060652  0.00000000       0.014
   0.00000000  0.13157075  0.00000000       0.007
   0.01899060  0.12060652  0.00000000       0.014
   0.03798120  0.10964229  0.00000000       0.014
   0.05697181  0.09867806  0.00000000       0.014
   0.07596241  0.08771383  0.00000000       0.014
   0.09495301  0.07674960  0.00000000       0.014
   0.11394361  0.06578537  0.00000000       0.007
 
 k-points in reciprocal lattice and weights: A                                       
   0.00000000  0.00000000  0.00000000       0.007
   0.08333333 -0.00000000  0.00000000       0.014
   0.16666667  0.00000000  0.00000000       0.014
   0.25000000 -0.00000000  0.00000000       0.014
   0.33333333  0.00000000  0.00000000       0.014
   0.41666667 -0.00000000  0.00000000       0.014
   0.50000000 -0.00000000  0.00000000       0.007
   0.00000000  0.08333333  0.00000000       0.014
   0.08333333  0.08333333  0.00000000       0.014
   0.16666667  0.08333333  0.00000000       0.014
   0.25000000  0.08333333  0.00000000       0.014
   0.33333333  0.08333333  0.00000000       0.014
   0.41666667  0.08333333  0.00000000       0.014
   0.50000000  0.08333333  0.00000000       0.014
  -0.41666667  0.08333333  0.00000000       0.014
  -0.33333333  0.08333333  0.00000000       0.014
  -0.25000000  0.08333333  0.00000000       0.014
  -0.16666667  0.08333333  0.00000000       0.014
  -0.08333333  0.08333333  0.00000000       0.014
   0.00000000  0.16666667  0.00000000       0.014
   0.08333333  0.16666667  0.00000000       0.014
   0.16666667  0.16666667  0.00000000       0.014
   0.25000000  0.16666667  0.00000000       0.014
   0.33333333  0.16666667  0.00000000       0.014
   0.41666667  0.16666667  0.00000000       0.014
   0.50000000  0.16666667  0.00000000       0.014
  -0.41666667  0.16666667  0.00000000       0.014
  -0.33333333  0.16666667  0.00000000       0.014
  -0.25000000  0.16666667  0.00000000       0.014
  -0.16666667  0.16666667  0.00000000       0.014
  -0.08333333  0.16666667  0.00000000       0.014
   0.00000000  0.25000000  0.00000000       0.014
   0.08333333  0.25000000  0.00000000       0.014
   0.16666667  0.25000000  0.00000000       0.014
   0.25000000  0.25000000  0.00000000       0.014
   0.33333333  0.25000000  0.00000000       0.014
   0.41666667  0.25000000  0.00000000       0.014
   0.50000000  0.25000000  0.00000000       0.014
  -0.41666667  0.25000000  0.00000000       0.014
  -0.33333333  0.25000000  0.00000000       0.014
  -0.25000000  0.25000000  0.00000000       0.014
  -0.16666667  0.25000000  0.00000000       0.014
  -0.08333333  0.25000000  0.00000000       0.014
   0.00000000  0.33333333  0.00000000       0.014
   0.08333333  0.33333333  0.00000000       0.014
   0.16666667  0.33333333  0.00000000       0.014
   0.25000000  0.33333333  0.00000000       0.014
   0.33333333  0.33333333  0.00000000       0.014
   0.41666667  0.33333333  0.00000000       0.014
   0.50000000  0.33333333  0.00000000       0.014
  -0.41666667  0.33333333  0.00000000       0.014
  -0.33333333  0.33333333  0.00000000       0.014
  -0.25000000  0.33333333  0.00000000       0.014
  -0.16666667  0.33333333  0.00000000       0.014
  -0.08333333  0.33333333  0.00000000       0.014
   0.00000000  0.41666667  0.00000000       0.014
   0.08333333  0.41666667  0.00000000       0.014
   0.16666667  0.41666667  0.00000000       0.014
   0.25000000  0.41666667  0.00000000       0.014
   0.33333333  0.41666667  0.00000000       0.014
   0.41666667  0.41666667  0.00000000       0.014
   0.50000000  0.41666667  0.00000000       0.014
  -0.41666667  0.41666667  0.00000000       0.014
  -0.33333333  0.41666667  0.00000000       0.014
  -0.25000000  0.41666667  0.00000000       0.014
  -0.16666667  0.41666667  0.00000000       0.014
  -0.08333333  0.41666667  0.00000000       0.014
   0.00000000  0.50000000  0.00000000       0.007
   0.08333333  0.50000000  0.00000000       0.014
   0.16666667  0.50000000  0.00000000       0.014
   0.25000000  0.50000000  0.00000000       0.014
   0.33333333  0.50000000  0.00000000       0.014
   0.41666667  0.50000000  0.00000000       0.014
   0.50000000  0.50000000  0.00000000       0.007
 
 position of ions in fractional coordinates (direct lattice) 
   0.00000000  0.00000000  0.00000000
   0.33333337  0.33333327  0.00000000
   0.66666673  0.66666653  0.00000000
   0.33333333  0.00000000  0.07661497
   0.66666670  0.33333327  0.07661497
   0.00000001  0.66666653  0.07661497
   0.66757608  0.00006156  0.15391020
   0.00087605  0.33332521  0.15282757
   0.33416184  0.66659227  0.15390794
   0.00132519  0.99707249  0.22993583
   0.33762545  0.33335854  0.22994157
   0.66515768  0.66954870  0.22994682
   0.99999895  0.33336429  0.41658339
   0.66670936  0.00002523  0.43713738
   0.00124049  0.33328326  0.31336312
 
 position of ions in cartesian coordinates  (Angst):
   0.00000000  0.00000000  0.00000000
   2.19406771  1.26674533  0.00000000
   4.38813544  2.53349066  0.00000000
   1.46271181  0.00000000  2.06860424
   3.65677953  1.26674533  2.06860424
   1.46271157  2.53349066  2.06860424
   2.92954933  0.00023394  4.15557550
   0.73518231  1.26671471  4.12634450
   2.92889597  2.53320844  4.15551449
   2.19345968  3.78911154  6.20826733
   2.21295742  1.26684140  6.20842237
   4.38783715  2.54444358  6.20856412
   5.11955465  1.26686322 11.24775150
   2.92566632  0.00009587 11.80270931
   0.73668947  1.26655528  8.46080414
 


--------------------------------------------------------------------------------------------------------


 k-point  1 :   0.0000 0.0000 0.0000  plane waves:   11283
 k-point  2 :   0.0833-0.0000 0.0000  plane waves:   11318
 k-point  3 :   0.1667 0.0000 0.0000  plane waves:   11368
 k-point  4 :   0.2500-0.0000 0.0000  plane waves:   11414
 k-point  5 :   0.3333 0.0000 0.0000  plane waves:   11430
 k-point  6 :   0.4167-0.0000 0.0000  plane waves:   11424
 k-point  7 :   0.5000-0.0000 0.0000  plane waves:   11442
 k-point  8 :   0.0000 0.0833 0.0000  plane waves:   11318
 k-point  9 :   0.0833 0.0833 0.0000  plane waves:   11318
 k-point 10 :   0.1667 0.0833 0.0000  plane waves:   11380
 k-point 11 :   0.2500 0.0833 0.0000  plane waves:   11415
 k-point 12 :   0.3333 0.0833 0.0000  plane waves:   11427
 k-point 13 :   0.4167 0.0833 0.0000  plane waves:   11450
 k-point 14 :   0.5000 0.0833 0.0000  plane waves:   11463
 k-point 15 :  -0.4167 0.0833 0.0000  plane waves:   11463
 k-point 16 :  -0.3333 0.0833 0.0000  plane waves:   11450
 k-point 17 :  -0.2500 0.0833 0.0000  plane waves:   11427
 k-point 18 :  -0.1667 0.0833 0.0000  plane waves:   11415
 k-point 19 :  -0.0833 0.0833 0.0000  plane waves:   11380
 k-point 20 :   0.0000 0.1667 0.0000  plane waves:   11368
 k-point 21 :   0.0833 0.1667 0.0000  plane waves:   11380
 k-point 22 :   0.1667 0.1667 0.0000  plane waves:   11368
 k-point 23 :   0.2500 0.1667 0.0000  plane waves:   11415
 k-point 24 :   0.3333 0.1667 0.0000  plane waves:   11442
 k-point 25 :   0.4167 0.1667 0.0000  plane waves:   11457
 k-point 26 :   0.5000 0.1667 0.0000  plane waves:   11441
 k-point 27 :  -0.4167 0.1667 0.0000  plane waves:   11440
 k-point 28 :  -0.3333 0.1667 0.0000  plane waves:   11441
 k-point 29 :  -0.2500 0.1667 0.0000  plane waves:   11457
 k-point 30 :  -0.1667 0.1667 0.0000  plane waves:   11442
 k-point 31 :  -0.0833 0.1667 0.0000  plane waves:   11415
 k-point 32 :   0.0000 0.2500 0.0000  plane waves:   11414
 k-point 33 :   0.0833 0.2500 0.0000  plane waves:   11415
 k-point 34 :   0.1667 0.2500 0.0000  plane waves:   11415
 k-point 35 :   0.2500 0.2500 0.0000  plane waves:   11414
 k-point 36 :   0.3333 0.2500 0.0000  plane waves:   11427
 k-point 37 :   0.4167 0.2500 0.0000  plane waves:   11457
 k-point 38 :   0.5000 0.2500 0.0000  plane waves:   11462
 k-point 39 :  -0.4167 0.2500 0.0000  plane waves:   11462
 k-point 40 :  -0.3333 0.2500 0.0000  plane waves:   11462
 k-point 41 :  -0.2500 0.2500 0.0000  plane waves:   11462
 k-point 42 :  -0.1667 0.2500 0.0000  plane waves:   11457
 k-point 43 :  -0.0833 0.2500 0.0000  plane waves:   11427
 k-point 44 :   0.0000 0.3333 0.0000  plane waves:   11430
 k-point 45 :   0.0833 0.3333 0.0000  plane waves:   11427
 k-point 46 :   0.1667 0.3333 0.0000  plane waves:   11442
 k-point 47 :   0.2500 0.3333 0.0000  plane waves:   11427
 k-point 48 :   0.3333 0.3333 0.0000  plane waves:   11430
 k-point 49 :   0.4167 0.3333 0.0000  plane waves:   11450
 k-point 50 :   0.5000 0.3333 0.0000  plane waves:   11441
 k-point 51 :  -0.4167 0.3333 0.0000  plane waves:   11462
 k-point 52 :  -0.3333 0.3333 0.0000  plane waves:   11466
 k-point 53 :  -0.2500 0.3333 0.0000  plane waves:   11462
 k-point 54 :  -0.1667 0.3333 0.0000  plane waves:   11441
 k-point 55 :  -0.0833 0.3333 0.0000  plane waves:   11450
 k-point 56 :   0.0000 0.4167 0.0000  plane waves:   11424
 k-point 57 :   0.0833 0.4167 0.0000  plane waves:   11450
 k-point 58 :   0.1667 0.4167 0.0000  plane waves:   11457
 k-point 59 :   0.2500 0.4167 0.0000  plane waves:   11457
 k-point 60 :   0.3333 0.4167 0.0000  plane waves:   11450
 k-point 61 :   0.4167 0.4167 0.0000  plane waves:   11424
 k-point 62 :   0.5000 0.4167 0.0000  plane waves:   11463
 k-point 63 :  -0.4167 0.4167 0.0000  plane waves:   11440
 k-point 64 :  -0.3333 0.4167 0.0000  plane waves:   11462
 k-point 65 :  -0.2500 0.4167 0.0000  plane waves:   11462
 k-point 66 :  -0.1667 0.4167 0.0000  plane waves:   11440
 k-point 67 :  -0.0833 0.4167 0.0000  plane waves:   11463
 k-point 68 :   0.0000 0.5000 0.0000  plane waves:   11442
 k-point 69 :   0.0833 0.5000 0.0000  plane waves:   11463
 k-point 70 :   0.1667 0.5000 0.0000  plane waves:   11441
 k-point 71 :   0.2500 0.5000 0.0000  plane waves:   11462
 k-point 72 :   0.3333 0.5000 0.0000  plane waves:   11441
 k-point 73 :   0.4167 0.5000 0.0000  plane waves:   11463
 k-point 74 :   0.5000 0.5000 0.0000  plane waves:   11442

 maximum and minimum number of plane-waves per node :     11466    11283

 maximum number of plane-waves:     11466
 maximum index in each direction: 
   IXMAX=    8   IYMAX=    8   IZMAX=   49
   IXMIN=   -8   IYMIN=   -8   IZMIN=  -49


 serial   3D FFT for wavefunctions
 parallel 3D FFT for charge:
    minimum data exchange during FFTs selected (reduces bandwidth)


 total amount of memory used by VASP MPI-rank0   578020. kBytes
=======================================================================

   base      :      30000. kBytes
   nonl-proj :     247244. kBytes
   fftplans  :      30708. kBytes
   grid      :      19718. kBytes
   one-center:        233. kBytes
   wavefun   :     250117. kBytes
 
     INWAV:  cpu time    0.0000: real time    0.0000
 initial charge density was supplied:
 number of electron     235.0000004 magnetization 
 keeping initial charge density in first step


--------------------------------------------------------------------------------------------------------


 Maximum index for augmentation-charges        25612 (set IRDMAX)


--------------------------------------------------------------------------------------------------------


 First call to EWALD:  gamma=   0.231
 Maximum number of real-space cells 5x 5x 1
 Maximum number of reciprocal cells 2x 2x 8

    FEWALD:  cpu time    0.0024: real time    0.0026


--------------------------------------- Iteration      1(   1)  ---------------------------------------


vdW kernel read from vdw_kernel.bindat
  0.0000  0.2424  0.5071  0.7962  1.1119  1.4567  1.8333  2.2446  2.6937  3.1842
  3.7199  4.3049  4.9438  5.6415  6.4036  7.2358  8.1446  9.1372 10.2212 11.4050
 12.6979 14.1099 15.6519 17.3360 19.1751 21.1837 23.3773 25.7729 28.3892 31.2465
 34.3669 37.7748 41.4965 45.5611 50.0000
 
    POTLOK:  cpu time   16.9741: real time   17.1541
    SETDIJ:  cpu time    0.7799: real time    0.7801
     EDDAV:  cpu time  188.9090: real time  189.0156
       DOS:  cpu time    0.0093: real time    0.0093
    --------------------------------------------
      LOOP:  cpu time  206.6723: real time  206.9592

 eigenvalue-minimisations  : 26760
 total energy-change (2. order) : 0.2647943E+04  (-0.1623698E+05)
 number of electron     235.0000004 magnetization 
 augmentation part      235.0000004 magnetization 

 Free energy of the ion-electron system (eV)
  ---------------------------------------------------
  alpha Z        PSCENC =       742.06687438
  Ewald energy   TEWEN  =    200321.52722691
  -Hartree energ DENC   =   -248953.82464757
  -exchange      EXHF   =         0.00000000
  -V(xc)+E(xc)   XCENC  =      1368.23739903
  PAW double counting   =     47646.22239885   -49582.27651668
  entropy T*S    EENTRO =        -0.01923960
  eigenvalues    EBANDS =     -3168.49584698
  atomic energy  EATOM  =     54274.50568096
  Solvation  Ediel_sol  =         0.00000000
  ---------------------------------------------------
  free energy    TOTEN  =      2647.94332931 eV

  energy without entropy =     2647.96256891  energy(sigma->0) =     2647.95294911


--------------------------------------------------------------------------------------------------------




--------------------------------------- Iteration      1(   2)  ---------------------------------------


     EDDAV:  cpu time  163.8400: real time  163.9072
       DOS:  cpu time    0.0089: real time    0.0089
    --------------------------------------------
      LOOP:  cpu time  163.8489: real time  163.9161

 eigenvalue-minimisations  : 22104
 total energy-change (2. order) :-0.2474718E+04  (-0.2402502E+04)
 number of electron     235.0000004 magnetization 
 augmentation part      235.0000004 magnetization 

 Free energy of the ion-electron system (eV)
  ---------------------------------------------------
  alpha Z        PSCENC =       742.06687438
  Ewald energy   TEWEN  =    200321.52722691
  -Hartree energ DENC   =   -248953.82464757
  -exchange      EXHF   =         0.00000000
  -V(xc)+E(xc)   XCENC  =      1368.23739903
  PAW double counting   =     47646.22239885   -49582.27651668
  entropy T*S    EENTRO =        -0.02808197
  eigenvalues    EBANDS =     -5643.20537978
  atomic energy  EATOM  =     54274.50568096
  Solvation  Ediel_sol  =         0.00000000
  ---------------------------------------------------
  free energy    TOTEN  =       173.22495414 eV

  energy without entropy =      173.25303611  energy(sigma->0) =      173.23899512


--------------------------------------------------------------------------------------------------------




--------------------------------------- Iteration      1(   3)  ---------------------------------------


     EDDAV:  cpu time  172.5448: real time  172.6523
       DOS:  cpu time    0.0084: real time    0.0084
    --------------------------------------------
      LOOP:  cpu time  172.5532: real time  172.6607

 eigenvalue-minimisations  : 23720
 total energy-change (2. order) :-0.1601387E+03  (-0.1559829E+03)
 number of electron     235.0000004 magnetization 
 augmentation part      235.0000004 magnetization 

 Free energy of the ion-electron system (eV)
  ---------------------------------------------------
  alpha Z        PSCENC =       742.06687438
  Ewald energy   TEWEN  =    200321.52722691
  -Hartree energ DENC   =   -248953.82464757
  -exchange      EXHF   =         0.00000000
  -V(xc)+E(xc)   XCENC  =      1368.23739903
  PAW double counting   =     47646.22239885   -49582.27651668
  entropy T*S    EENTRO =        -0.02495608
  eigenvalues    EBANDS =     -5803.34720406
  atomic energy  EATOM  =     54274.50568096
  Solvation  Ediel_sol  =         0.00000000
  ---------------------------------------------------
  free energy    TOTEN  =        13.08625575 eV

  energy without entropy =       13.11121183  energy(sigma->0) =       13.09873379


--------------------------------------------------------------------------------------------------------




--------------------------------------- Iteration      1(   4)  ---------------------------------------


     EDDAV:  cpu time  168.6277: real time  168.7374
       DOS:  cpu time    0.0083: real time    0.0083
    --------------------------------------------
      LOOP:  cpu time  168.6359: real time  168.7456

 eigenvalue-minimisations  : 23016
 total energy-change (2. order) :-0.5528773E+01  (-0.5500762E+01)
 number of electron     235.0000004 magnetization 
 augmentation part      235.0000004 magnetization 

 Free energy of the ion-electron system (eV)
  ---------------------------------------------------
  alpha Z        PSCENC =       742.06687438
  Ewald energy   TEWEN  =    200321.52722691
  -Hartree energ DENC   =   -248953.82464757
  -exchange      EXHF   =         0.00000000
  -V(xc)+E(xc)   XCENC  =      1368.23739903
  PAW double counting   =     47646.22239885   -49582.27651668
  entropy T*S    EENTRO =        -0.02408895
  eigenvalues    EBANDS =     -5808.87684402
  atomic energy  EATOM  =     54274.50568096
  Solvation  Ediel_sol  =         0.00000000
  ---------------------------------------------------
  free energy    TOTEN  =         7.55748291 eV

  energy without entropy =        7.58157186  energy(sigma->0) =        7.56952739


--------------------------------------------------------------------------------------------------------




--------------------------------------- Iteration      1(   5)  ---------------------------------------


     EDDAV:  cpu time  189.7298: real time  189.8316
       DOS:  cpu time    0.0083: real time    0.0083
    --------------------------------------------
      LOOP:  cpu time  189.7381: real time  189.8399

 eigenvalue-minimisations  : 26936
 total energy-change (2. order) :-0.2201534E+00  (-0.2201301E+00)
 number of electron     235.0000004 magnetization 
 augmentation part      235.0000004 magnetization 

 Free energy of the ion-electron system (eV)
  ---------------------------------------------------
  alpha Z        PSCENC =       742.06687438
  Ewald energy   TEWEN  =    200321.52722691
  -Hartree energ DENC   =   -248953.82464757
  -exchange      EXHF   =         0.00000000
  -V(xc)+E(xc)   XCENC  =      1368.23739903
  PAW double counting   =     47646.22239885   -49582.27651668
  entropy T*S    EENTRO =        -0.02410531
  eigenvalues    EBANDS =     -5809.09698109
  atomic energy  EATOM  =     54274.50568096
  Solvation  Ediel_sol  =         0.00000000
  ---------------------------------------------------
  free energy    TOTEN  =         7.33732949 eV

  energy without entropy =        7.36143480  energy(sigma->0) =        7.34938215


--------------------------------------------------------------------------------------------------------




--------------------------------------- Iteration      1(   6)  ---------------------------------------


     EDDAV:  cpu time  180.9284: real time  181.0181
       DOS:  cpu time    0.0084: real time    0.0084
    --------------------------------------------
      LOOP:  cpu time  180.9368: real time  181.0265

 eigenvalue-minimisations  : 25320
 total energy-change (2. order) :-0.4977583E-02  (-0.4977513E-02)
 number of electron     235.0000004 magnetization 
 augmentation part      235.0000004 magnetization 

 Free energy of the ion-electron system (eV)
  ---------------------------------------------------
  alpha Z        PSCENC =       742.06687438
  Ewald energy   TEWEN  =    200321.52722691
  -Hartree energ DENC   =   -248953.82464757
  -exchange      EXHF   =         0.00000000
  -V(xc)+E(xc)   XCENC  =      1368.23739903
  PAW double counting   =     47646.22239885   -49582.27651668
  entropy T*S    EENTRO =        -0.02410442
  eigenvalues    EBANDS =     -5809.10195956
  atomic energy  EATOM  =     54274.50568096
  Solvation  Ediel_sol  =         0.00000000
  ---------------------------------------------------
  free energy    TOTEN  =         7.33235191 eV

  energy without entropy =        7.35645632  energy(sigma->0) =        7.34440412


--------------------------------------------------------------------------------------------------------




--------------------------------------- Iteration      1(   7)  ---------------------------------------


     EDDAV:  cpu time  206.9579: real time  207.0336
       DOS:  cpu time    0.0086: real time    0.0086
    --------------------------------------------
      LOOP:  cpu time  206.9665: real time  207.0422

 eigenvalue-minimisations  : 30160
 total energy-change (2. order) :-0.2756734E-03  (-0.2756726E-03)
 number of electron     235.0000004 magnetization 
 augmentation part      235.0000004 magnetization 

 Free energy of the ion-electron system (eV)
  ---------------------------------------------------
  alpha Z        PSCENC =       742.06687438
  Ewald energy   TEWEN  =    200321.52722691
  -Hartree energ DENC   =   -248953.82464757
  -exchange      EXHF   =         0.00000000
  -V(xc)+E(xc)   XCENC  =      1368.23739903
  PAW double counting   =     47646.22239885   -49582.27651668
  entropy T*S    EENTRO =        -0.02410426
  eigenvalues    EBANDS =     -5809.10223540
  atomic energy  EATOM  =     54274.50568096
  Solvation  Ediel_sol  =         0.00000000
  ---------------------------------------------------
  free energy    TOTEN  =         7.33207623 eV

  energy without entropy =        7.35618049  energy(sigma->0) =        7.34412836


--------------------------------------------------------------------------------------------------------




--------------------------------------- Iteration      1(   8)  ---------------------------------------


     EDDAV:  cpu time  137.4910: real time  137.5874
       DOS:  cpu time    0.0083: real time    0.0083
    --------------------------------------------
      LOOP:  cpu time  137.4993: real time  137.5957

 eigenvalue-minimisations  : 17144
 total energy-change (2. order) :-0.5984708E-05  (-0.5984735E-05)
 number of electron     235.0000004 magnetization 
 augmentation part      235.0000004 magnetization 

 Free energy of the ion-electron system (eV)
  ---------------------------------------------------
  alpha Z        PSCENC =       742.06687438
  Ewald energy   TEWEN  =    200321.52722691
  -Hartree energ DENC   =   -248953.82464757
  -exchange      EXHF   =         0.00000000
  -V(xc)+E(xc)   XCENC  =      1368.23739903
  PAW double counting   =     47646.22239885   -49582.27651668
  entropy T*S    EENTRO =        -0.02410425
  eigenvalues    EBANDS =     -5809.10224138
  atomic energy  EATOM  =     54274.50568096
  Solvation  Ediel_sol  =         0.00000000
  ---------------------------------------------------
  free energy    TOTEN  =         7.33207025 eV

  energy without entropy =        7.35617450  energy(sigma->0) =        7.34412238


--------------------------------------------------------------------------------------------------------




--------------------------------------- Iteration      1(   9)  ---------------------------------------


     EDDAV:  cpu time  117.0712: real time  117.1367
       DOS:  cpu time    0.0086: real time    0.0086
    --------------------------------------------
      LOOP:  cpu time  117.0798: real time  117.1453

 eigenvalue-minimisations  : 13336
 total energy-change (2. order) :-0.4339236E-06  (-0.4338734E-06)
 number of electron     235.0000004 magnetization 
 augmentation part      235.0000004 magnetization 

 Free energy of the ion-electron system (eV)
  ---------------------------------------------------
  alpha Z        PSCENC =       742.06687438
  Ewald energy   TEWEN  =    200321.52722691
  -Hartree energ DENC   =   -248953.82464757
  -exchange      EXHF   =         0.00000000
  -V(xc)+E(xc)   XCENC  =      1368.23739903
  PAW double counting   =     47646.22239885   -49582.27651668
  entropy T*S    EENTRO =        -0.02410425
  eigenvalues    EBANDS =     -5809.10224182
  atomic energy  EATOM  =     54274.50568096
  Solvation  Ediel_sol  =         0.00000000
  ---------------------------------------------------
  free energy    TOTEN  =         7.33206981 eV

  energy without entropy =        7.35617407  energy(sigma->0) =        7.34412194


--------------------------------------------------------------------------------------------------------




--------------------------------------- Iteration      1(  10)  ---------------------------------------


     EDDAV:  cpu time  112.6789: real time  112.7330
       DOS:  cpu time    0.0083: real time    0.0083
    --------------------------------------------
      LOOP:  cpu time  112.6871: real time  112.7413

 eigenvalue-minimisations  : 12512
 total energy-change (2. order) :-0.6963819E-07  (-0.6963206E-07)
 number of electron     235.0000004 magnetization 
 augmentation part      235.0000004 magnetization 

 Free energy of the ion-electron system (eV)
  ---------------------------------------------------
  alpha Z        PSCENC =       742.06687438
  Ewald energy   TEWEN  =    200321.52722691
  -Hartree energ DENC   =   -248953.82464757
  -exchange      EXHF   =         0.00000000
  -V(xc)+E(xc)   XCENC  =      1368.23739903
  PAW double counting   =     47646.22239885   -49582.27651668
  entropy T*S    EENTRO =        -0.02410425
  eigenvalues    EBANDS =     -5809.10224189
  atomic energy  EATOM  =     54274.50568096
  Solvation  Ediel_sol  =         0.00000000
  ---------------------------------------------------
  free energy    TOTEN  =         7.33206975 eV

  energy without entropy =        7.35617400  energy(sigma->0) =        7.34412187


--------------------------------------------------------------------------------------------------------




 average (electrostatic) potential at core
  the test charge radii are     0.8297  1.1875
  (the norm of the test charge is              1.0000)
       1 -85.5296       2 -85.5296       3 -85.5295       4 -85.8140       5 -85.8141
       6 -85.8141       7 -85.8522       8 -85.7037       9 -85.8479      10 -85.7025
      11 -85.7019      12 -85.7022      13 -84.6071      14 -95.5388      15 -95.8871
 
 
 
 E-fermi :   0.5335     XC(G=0):  -6.9727     alpha+bet : -5.8952


 k-point     1 :       0.0000    0.0000    0.0000
  band No.  band energies     occupation 
      1     -69.4213      2.00000
      2     -69.4088      2.00000
      3     -69.4084      2.00000
      4     -69.4057      2.00000
      5     -69.3800      2.00000
      6     -69.3785      2.00000
      7     -69.3784      2.00000
      8     -69.3705      2.00000
      9     -69.3704      2.00000
     10     -69.3647      2.00000
     11     -69.3580      2.00000
     12     -69.3476      2.00000
     13     -69.3476      2.00000
     14     -69.3115      2.00000
     15     -69.3113      2.00000
     16     -69.2950      2.00000
     17     -69.2911      2.00000
     18     -69.2910      2.00000
     19     -69.2855      2.00000
     20     -69.2426      2.00000
     21     -69.2425      2.00000
     22     -69.2417      2.00000
     23     -69.2328      2.00000
     24     -69.2327      2.00000
     25     -69.1939      2.00000
     26     -69.1861      2.00000
     27     -69.1857      2.00000
     28     -69.1213      2.00000
     29     -69.1174      2.00000
     30     -69.1174      2.00000
     31     -69.1148      2.00000
     32     -69.0546      2.00000
     33     -69.0546      2.00000
     34     -69.0223      2.00000
     35     -69.0120      2.00000
     36     -69.0120      2.00000
     37     -68.1894      2.00000
     38     -68.1561      2.00000
     39     -68.1561      2.00000
     40     -12.9233      2.00000
     41     -12.4726      2.00000
     42      -8.5543      2.00000
     43      -7.3263      2.00000
     44      -5.8137      2.00000
     45      -4.8605      2.00000
     46      -3.9749      2.00000
     47      -3.5760      2.00000
     48      -3.5416      2.00000
     49      -3.5394      2.00000
     50      -3.5378      2.00000
     51      -3.4839      2.00000
     52      -3.4832      2.00000
     53      -3.4453      2.00000
     54      -3.4443      2.00000
     55      -3.3860      2.00000
     56      -3.3790      2.00000
     57      -3.3238      2.00000
     58      -3.3232      2.00000
     59      -3.1736      2.00000
     60      -3.1733      2.00000
     61      -2.9100      2.00000
     62      -2.9100      2.00000
     63      -2.8512      2.00000
     64      -2.8505      2.00000
     65      -2.7921      2.00000
     66      -2.7917      2.00000
     67      -2.6664      2.00000
     68      -2.6660      2.00000
     69      -2.6565      2.00000
     70      -2.6430      2.00000
     71      -2.5421      2.00000
     72      -2.5418      2.00000
     73      -2.4888      2.00000
     74      -2.4815      2.00000
     75      -2.4807      2.00000
     76      -2.4697      2.00000
     77      -2.3878      2.00000
     78      -2.3878      2.00000
     79      -2.3682      2.00000
     80      -2.2931      2.00000
     81      -2.2919      2.00000
     82      -2.2490      2.00000
     83      -2.2490      2.00000
     84      -2.2175      2.00000
     85      -2.2174      2.00000
     86      -1.9750      2.00000
     87      -1.9353      2.00000
     88      -1.9341      2.00000
     89      -1.8516      2.00000
     90      -1.8499      2.00000
     91      -1.6997      2.00000
     92      -1.6957      2.00000
     93      -1.6595      2.00000
     94      -1.6584      2.00000
     95      -1.6395      2.00000
     96      -1.6387      2.00000
     97      -1.5845      2.00000
     98      -1.5844      2.00000
     99      -1.3165      2.00000
    100      -1.3153      2.00000
    101      -1.2569      2.00000
    102      -1.2566      2.00000
    103      -1.2429      2.00000
    104      -1.2058      2.00000
    105      -1.2056      2.00000
    106      -1.1889      2.00000
    107      -1.1883      2.00000
    108      -1.1804      2.00000
    109      -1.1184      2.00000
    110      -1.1170      2.00000
    111      -0.6400      2.00000
    112      -0.6396      2.00000
    113      -0.5777      2.00000
    114      -0.0963      2.00000
    115       0.5111      1.24865
    116       0.5114      1.24521
    117       1.9102      0.00000
    118       2.7853      0.00000
    119       4.0283      0.00000
    120       4.0298      0.00000
    121       4.2216      0.00000
    122       4.2236      0.00000
    123       4.2839      0.00000
    124       4.3017      0.00000
    125       4.3512      0.00000
    126       4.6312      0.00000
    127       4.8693      0.00000
    128       4.9928      0.00000
    129       5.0816      0.00000
    130       5.0818      0.00000
    131       5.5496      0.00000
    132       5.7078      0.00000
    133       5.7089      0.00000
    134       5.9424      0.00000
    135       5.9801      0.00000
    136       5.9824      0.00000
    137       6.4640      0.00000
    138       6.4690      0.00000
    139       6.8484      0.00000
    140       6.9512      0.00000
    141       7.0744      0.00000
    142       7.2834      0.00000
    143       7.2867      0.00000
    144       7.5810      0.00000

 k-point     2 :       0.0833   -0.0000    0.0000
  band No.  band energies     occupation 
      1     -69.4211      2.00000
      2     -69.4096      2.00000
      3     -69.4088      2.00000
      4     -69.4061      2.00000
      5     -69.3850      2.00000
      6     -69.3795      2.00000
      7     -69.3744      2.00000
      8     -69.3705      2.00000
      9     -69.3675      2.00000
     10     -69.3612      2.00000
     11     -69.3577      2.00000
     12     -69.3479      2.00000
     13     -69.3476      2.00000
     14     -69.3136      2.00000
     15     -69.3120      2.00000
     16     -69.2997      2.00000
     17     -69.2953      2.00000
     18     -69.2852      2.00000
     19     -69.2801      2.00000
     20     -69.2433      2.00000
     21     -69.2427      2.00000
     22     -69.2415      2.00000
     23     -69.2346      2.00000
     24     -69.2333      2.00000
     25     -69.1938      2.00000
     26     -69.1862      2.00000
     27     -69.1860      2.00000
     28     -69.1264      2.00000
     29     -69.1230      2.00000
     30     -69.1111      2.00000
     31     -69.1080      2.00000
     32     -69.0569      2.00000
     33     -69.0553      2.00000
     34     -69.0222      2.00000
     35     -69.0120      2.00000
     36     -69.0120      2.00000
     37     -68.1893      2.00000
     38     -68.1562      2.00000
     39     -68.1561      2.00000
     40     -12.9034      2.00000
     41     -12.4538      2.00000
     42      -8.4796      2.00000
     43      -7.2571      2.00000
     44      -5.7541      2.00000
     45      -4.8088      2.00000
     46      -3.9899      2.00000
     47      -3.6842      2.00000
     48      -3.6622      2.00000
     49      -3.6443      2.00000
     50      -3.6202      2.00000
     51      -3.5428      2.00000
     52      -3.4751      2.00000
     53      -3.4469      2.00000
     54      -3.4026      2.00000
     55      -3.3589      2.00000
     56      -3.3363      2.00000
     57      -3.2958      2.00000
     58      -3.2924      2.00000
     59      -3.1760      2.00000
     60      -3.1478      2.00000
     61      -2.9888      2.00000
     62      -2.9388      2.00000
     63      -2.9024      2.00000
     64      -2.8939      2.00000
     65      -2.7667      2.00000
     66      -2.7276      2.00000
     67      -2.6891      2.00000
     68      -2.6754      2.00000
     69      -2.6539      2.00000
     70      -2.6372      2.00000
     71      -2.5670      2.00000
     72      -2.5151      2.00000
     73      -2.4871      2.00000
     74      -2.4689      2.00000
     75      -2.4613      2.00000
     76      -2.4586      2.00000
     77      -2.4034      2.00000
     78      -2.3834      2.00000
     79      -2.3592      2.00000
     80      -2.2989      2.00000
     81      -2.2845      2.00000
     82      -2.2267      2.00000
     83      -2.2254      2.00000
     84      -2.1936      2.00000
     85      -2.1792      2.00000
     86      -2.0684      2.00000
     87      -1.9791      2.00000
     88      -1.9518      2.00000
     89      -1.8544      2.00000
     90      -1.8307      2.00000
     91      -1.7184      2.00000
     92      -1.7127      2.00000
     93      -1.6562      2.00000
     94      -1.6525      2.00000
     95      -1.6259      2.00000
     96      -1.6061      2.00000
     97      -1.5794      2.00000
     98      -1.5638      2.00000
     99      -1.3286      2.00000
    100      -1.3024      2.00000
    101      -1.2956      2.00000
    102      -1.2591      2.00000
    103      -1.2271      2.00000
    104      -1.2249      2.00000
    105      -1.2085      2.00000
    106      -1.1880      2.00000
    107      -1.1689      2.00000
    108      -1.1397      2.00000
    109      -1.1266      2.00000
    110      -1.1121      2.00000
    111      -0.7407      2.00000
    112      -0.6515      2.00000
    113      -0.4686      2.00000
    114       0.0580      2.00000
    115       0.2589      1.99990
    116       0.4311      1.85247
    117       2.1342      0.00000
    118       2.6830      0.00000
    119       2.9529      0.00000
    120       3.2648      0.00000
    121       3.5318      0.00000
    122       3.7012      0.00000
    123       4.2249      0.00000
    124       4.4235      0.00000
    125       4.6693      0.00000
    126       4.7013      0.00000
    127       4.8640      0.00000
    128       5.1575      0.00000
    129       5.3240      0.00000
    130       5.5130      0.00000
    131       5.6197      0.00000
    132       5.8433      0.00000
    133       5.9278      0.00000
    134       6.0577      0.00000
    135       6.1819      0.00000
    136       6.2437      0.00000
    137       6.4603      0.00000
    138       6.7206      0.00000
    139       6.8928      0.00000
    140       7.0374      0.00000
    141       7.2467      0.00000
    142       7.4587      0.00000
    143       7.5114      0.00000
    144       7.6816      0.00000

 k-point     3 :       0.1667    0.0000    0.0000
  band No.  band energies     occupation 
      1     -69.4204      2.00000
      2     -69.4119      2.00000
      3     -69.4094      2.00000
      4     -69.4070      2.00000
      5     -69.3897      2.00000
      6     -69.3812      2.00000
      7     -69.3720      2.00000
      8     -69.3690      2.00000
      9     -69.3613      2.00000
     10     -69.3566      2.00000
     11     -69.3544      2.00000
     12     -69.3488      2.00000
     13     -69.3475      2.00000
     14     -69.3194      2.00000
     15     -69.3135      2.00000
     16     -69.3047      2.00000
     17     -69.2993      2.00000
     18     -69.2773      2.00000
     19     -69.2724      2.00000
     20     -69.2450      2.00000
     21     -69.2430      2.00000
     22     -69.2414      2.00000
     23     -69.2393      2.00000
     24     -69.2346      2.00000
     25     -69.1934      2.00000
     26     -69.1868      2.00000
     27     -69.1865      2.00000
     28     -69.1321      2.00000
     29     -69.1272      2.00000
     30     -69.1030      2.00000
     31     -69.0994      2.00000
     32     -69.0627      2.00000
     33     -69.0567      2.00000
     34     -69.0216      2.00000
     35     -69.0124      2.00000
     36     -69.0122      2.00000
     37     -68.1893      2.00000
     38     -68.1563      2.00000
     39     -68.1562      2.00000
     40     -12.8482      2.00000
     41     -12.4015      2.00000
     42      -8.2574      2.00000
     43      -7.0524      2.00000
     44      -5.5822      2.00000
     45      -4.6615      2.00000
     46      -4.0458      2.00000
     47      -3.8785      2.00000
     48      -3.8427      2.00000
     49      -3.8275      2.00000
     50      -3.7552      2.00000
     51      -3.6555      2.00000
     52      -3.5749      2.00000
     53      -3.5051      2.00000
     54      -3.4413      2.00000
     55      -3.4071      2.00000
     56      -3.3850      2.00000
     57      -3.2588      2.00000
     58      -3.1973      2.00000
     59      -3.1651      2.00000
     60      -3.1606      2.00000
     61      -3.1292      2.00000
     62      -2.9676      2.00000
     63      -2.9051      2.00000
     64      -2.8636      2.00000
     65      -2.8042      2.00000
     66      -2.7541      2.00000
     67      -2.7299      2.00000
     68      -2.7206      2.00000
     69      -2.6580      2.00000
     70      -2.6370      2.00000
     71      -2.5154      2.00000
     72      -2.4783      2.00000
     73      -2.4679      2.00000
     74      -2.4499      2.00000
     75      -2.4321      2.00000
     76      -2.4291      2.00000
     77      -2.4013      2.00000
     78      -2.3809      2.00000
     79      -2.3109      2.00000
     80      -2.2732      2.00000
     81      -2.2711      2.00000
     82      -2.2545      2.00000
     83      -2.2367      2.00000
     84      -2.2182      2.00000
     85      -2.1216      2.00000
     86      -2.0315      2.00000
     87      -1.9874      2.00000
     88      -1.9756      2.00000
     89      -1.8795      2.00000
     90      -1.8222      2.00000
     91      -1.7561      2.00000
     92      -1.7359      2.00000
     93      -1.6735      2.00000
     94      -1.6321      2.00000
     95      -1.6150      2.00000
     96      -1.5753      2.00000
     97      -1.5386      2.00000
     98      -1.5074      2.00000
     99      -1.4640      2.00000
    100      -1.3510      2.00000
    101      -1.2915      2.00000
    102      -1.2609      2.00000
    103      -1.2204      2.00000
    104      -1.2061      2.00000
    105      -1.1978      2.00000
    106      -1.1520      2.00000
    107      -1.1325      2.00000
    108      -1.0865      2.00000
    109      -1.0472      2.00000
    110      -1.0383      2.00000
    111      -0.8461      2.00000
    112      -0.6839      2.00000
    113      -0.3453      2.00000
    114      -0.2123      2.00000
    115       0.2278      1.99998
    116       0.4724      1.61211
    117       1.4365      0.00000
    118       2.1806      0.00000
    119       2.4021      0.00000
    120       2.5480      0.00000
    121       2.9038      0.00000
    122       3.2703      0.00000
    123       3.5479      0.00000
    124       3.8878      0.00000
    125       4.2571      0.00000
    126       4.6400      0.00000
    127       4.9010      0.00000
    128       5.4569      0.00000
    129       5.5249      0.00000
    130       5.6390      0.00000
    131       5.7821      0.00000
    132       6.0434      0.00000
    133       6.1681      0.00000
    134       6.3261      0.00000
    135       6.5777      0.00000
    136       6.7826      0.00000
    137       6.9716      0.00000
    138       7.0962      0.00000
    139       7.2806      0.00000
    140       7.4355      0.00000
    141       7.5032      0.00000
    142       7.7489      0.00000
    143       7.9993      0.00000
    144       8.1019      0.00000

 k-point     4 :       0.2500   -0.0000    0.0000
  band No.  band energies     occupation 
      1     -69.4194      2.00000
      2     -69.4147      2.00000
      3     -69.4106      2.00000
      4     -69.4063      2.00000
      5     -69.3925      2.00000
      6     -69.3815      2.00000
      7     -69.3717      2.00000
      8     -69.3662      2.00000
      9     -69.3572      2.00000
     10     -69.3524      2.00000
     11     -69.3501      2.00000
     12     -69.3489      2.00000
     13     -69.3455      2.00000
     14     -69.3283      2.00000
     15     -69.3160      2.00000
     16     -69.3092      2.00000
     17     -69.2998      2.00000
     18     -69.2695      2.00000
     19     -69.2647      2.00000
     20     -69.2480      2.00000
     21     -69.2468      2.00000
     22     -69.2427      2.00000
     23     -69.2411      2.00000
     24     -69.2368      2.00000
     25     -69.1927      2.00000
     26     -69.1875      2.00000
     27     -69.1871      2.00000
     28     -69.1371      2.00000
     29     -69.1274      2.00000
     30     -69.0951      2.00000
     31     -69.0909      2.00000
     32     -69.0717      2.00000
     33     -69.0593      2.00000
     34     -69.0206      2.00000
     35     -69.0131      2.00000
     36     -69.0126      2.00000
     37     -68.1893      2.00000
     38     -68.1565      2.00000
     39     -68.1562      2.00000
     40     -12.7703      2.00000
     41     -12.3278      2.00000
     42      -7.8936      2.00000
     43      -6.7225      2.00000
     44      -5.3222      2.00000
     45      -4.4588      2.00000
     46      -4.1870      2.00000
     47      -4.1280      2.00000
     48      -4.0950      2.00000
     49      -4.0061      2.00000
     50      -3.9208      2.00000
     51      -3.7464      2.00000
     52      -3.7016      2.00000
     53      -3.6657      2.00000
     54      -3.5751      2.00000
     55      -3.5276      2.00000
     56      -3.4192      2.00000
     57      -3.3526      2.00000
     58      -3.3035      2.00000
     59      -3.2594      2.00000
     60      -3.0734      2.00000
     61      -3.0500      2.00000
     62      -3.0200      2.00000
     63      -2.8723      2.00000
     64      -2.8589      2.00000
     65      -2.8380      2.00000
     66      -2.7990      2.00000
     67      -2.7425      2.00000
     68      -2.7266      2.00000
     69      -2.7134      2.00000
     70      -2.6094      2.00000
     71      -2.5546      2.00000
     72      -2.5360      2.00000
     73      -2.5092      2.00000
     74      -2.4267      2.00000
     75      -2.4202      2.00000
[...]
    122       2.1703      0.00000
    123       2.6675      0.00000
    124       2.8957      0.00000
    125       3.8878      0.00000
    126       4.2852      0.00000
    127       4.8856      0.00000
    128       5.0337      0.00000
    129       5.3841      0.00000
    130       6.0174      0.00000
    131       6.2504      0.00000
    132       6.6128      0.00000
    133       6.8198      0.00000
    134       7.1077      0.00000
    135       7.2400      0.00000
    136       7.5620      0.00000
    137       7.7004      0.00000
    138       7.8498      0.00000
    139       8.1931      0.00000
    140       8.4906      0.00000
    141       8.7511      0.00000
    142       8.9445      0.00000
    143       9.2078      0.00000
    144       9.4161      0.00000

 k-point    74 :       0.5000    0.5000    0.0000
  band No.  band energies     occupation 
      1     -69.4197      2.00000
      2     -69.4170      2.00000
      3     -69.4135      2.00000
      4     -69.3978      2.00000
      5     -69.3943      2.00000
      6     -69.3787      2.00000
      7     -69.3664      2.00000
      8     -69.3654      2.00000
      9     -69.3568      2.00000
     10     -69.3559      2.00000
     11     -69.3505      2.00000
     12     -69.3497      2.00000
     13     -69.3355      2.00000
     14     -69.3320      2.00000
     15     -69.3265      2.00000
     16     -69.3156      2.00000
     17     -69.2821      2.00000
     18     -69.2785      2.00000
     19     -69.2539      2.00000
     20     -69.2498      2.00000
     21     -69.2494      2.00000
     22     -69.2473      2.00000
     23     -69.2431      2.00000
     24     -69.2408      2.00000
     25     -69.1908      2.00000
     26     -69.1890      2.00000
     27     -69.1885      2.00000
     28     -69.1443      2.00000
     29     -69.1083      2.00000
     30     -69.1055      2.00000
     31     -69.0783      2.00000
     32     -69.0747      2.00000
     33     -69.0708      2.00000
     34     -69.0166      2.00000
     35     -69.0165      2.00000
     36     -69.0131      2.00000
     37     -68.1893      2.00000
     38     -68.1566      2.00000
     39     -68.1563      2.00000
     40     -12.6053      2.00000
     41     -12.1710      2.00000
     42      -6.1127      2.00000
     43      -6.1055      2.00000
     44      -5.3172      2.00000
     45      -5.1988      2.00000
     46      -4.6606      2.00000
     47      -4.4793      2.00000
     48      -4.3318      2.00000
     49      -4.2194      2.00000
     50      -4.1074      2.00000
     51      -4.0221      2.00000
     52      -3.9074      2.00000
     53      -3.8247      2.00000
     54      -3.6965      2.00000
     55      -3.6313      2.00000
     56      -3.4785      2.00000
     57      -3.4601      2.00000
     58      -3.3973      2.00000
     59      -3.2672      2.00000
     60      -3.2388      2.00000
     61      -3.1252      2.00000
     62      -3.1159      2.00000
     63      -3.0266      2.00000
     64      -3.0063      2.00000
     65      -2.9731      2.00000
     66      -2.8186      2.00000
     67      -2.8035      2.00000
     68      -2.7358      2.00000
     69      -2.6697      2.00000
     70      -2.6632      2.00000
     71      -2.6383      2.00000
     72      -2.6141      2.00000
     73      -2.5602      2.00000
     74      -2.5070      2.00000
     75      -2.4913      2.00000
     76      -2.4321      2.00000
     77      -2.3653      2.00000
     78      -2.2570      2.00000
     79      -2.2112      2.00000
     80      -2.1915      2.00000
     81      -2.1700      2.00000
     82      -2.1082      2.00000
     83      -2.0590      2.00000
     84      -1.9933      2.00000
     85      -1.9344      2.00000
     86      -1.9324      2.00000
     87      -1.7843      2.00000
     88      -1.7699      2.00000
     89      -1.6830      2.00000
     90      -1.6710      2.00000
     91      -1.6233      2.00000
     92      -1.4893      2.00000
     93      -1.4853      2.00000
     94      -1.4566      2.00000
     95      -1.4247      2.00000
     96      -1.4122      2.00000
     97      -1.3658      2.00000
     98      -1.3071      2.00000
     99      -1.2677      2.00000
    100      -1.2196      2.00000
    101      -1.2043      2.00000
    102      -1.1994      2.00000
    103      -1.1884      2.00000
    104      -1.1779      2.00000
    105      -1.1523      2.00000
    106      -1.1454      2.00000
    107      -1.1076      2.00000
    108      -1.0930      2.00000
    109      -1.0439      2.00000
    110      -0.9864      2.00000
    111      -0.9681      2.00000
    112      -0.9037      2.00000
    113      -0.8268      2.00000
    114      -0.8154      2.00000
    115      -0.4608      2.00000
    116      -0.3969      2.00000
    117       0.1081      2.00000
    118       0.1271      2.00000
    119       0.5825      0.48795
    120       1.3009      0.00000
    121       1.8097      0.00000
    122       2.0658      0.00000
    123       2.2239      0.00000
    124       2.6676      0.00000
    125       3.7199      0.00000
    126       4.3302      0.00000
    127       4.5924      0.00000
    128       4.9171      0.00000
    129       5.3304      0.00000
    130       5.9157      0.00000
    131       6.1910      0.00000
    132       6.7634      0.00000
    133       6.8946      0.00000
    134       7.0179      0.00000
    135       7.2718      0.00000
    136       7.3504      0.00000
    137       7.5479      0.00000
    138       7.9968      0.00000
    139       8.2419      0.00000
    140       8.3891      0.00000
    141       8.7894      0.00000
    142       8.8847      0.00000
    143       9.0695      0.00000
    144       9.6099      0.00000


--------------------------------------------------------------------------------------------------------


 soft charge-density along one line, spin component           1
         0         1         2         3         4         5         6         7         8         9
 total charge-density along one line
 
 pseudopotential strength for first ion, spin component:           1
-71.748  -0.002  -0.002  10.310   0.001   0.001  -0.001   0.034
 -0.002 -71.690  -0.001   0.001  10.286   0.000  -0.000  -0.001
 -0.002  -0.001 -71.745   0.001   0.000  10.309  -0.001  -0.000
 10.310   0.001   0.001   5.444  -0.000  -0.000   0.000  -0.009
  0.001  10.286   0.000  -0.000   5.448  -0.000   0.000   0.000
  0.001   0.000  10.309  -0.000  -0.000   5.444   0.000   0.000
 -0.001  -0.000  -0.001   0.000   0.000   0.000 -10.730   0.000
  0.034  -0.001  -0.000  -0.009   0.000   0.000   0.000 -10.693
  0.001   0.043   0.001  -0.000  -0.011  -0.000   0.002  -0.001
 -0.000  -0.001   0.034   0.000   0.000  -0.009  -0.001  -0.001
  0.001   0.000  -0.001  -0.000  -0.000   0.000   0.000   0.001
 -0.001  -0.000  -0.001   0.000   0.000   0.000 -11.226   0.000
  0.033  -0.001  -0.000  -0.009   0.000   0.000   0.000 -11.191
  0.001   0.042   0.001  -0.000  -0.010  -0.000   0.002  -0.001
 -0.000  -0.001   0.033   0.000   0.000  -0.009  -0.001  -0.001
  0.001   0.000  -0.001  -0.000  -0.000   0.000   0.000   0.001
  0.000  -0.009   0.000  -0.000   0.002  -0.000   0.000   0.000
  0.000  -0.018   0.000  -0.000   0.004  -0.000   0.001   0.001
 total augmentation occupancy for first ion, spin component:           1
  2.000   0.000   0.000   0.000   0.000   0.000   0.000   0.000   0.000   0.000   0.000   0.000   0.000   0.000   0.000   0.000
  0.000   2.000   0.000   0.000   0.000   0.000   0.000   0.000   0.000   0.000   0.000   0.000   0.000   0.000   0.000   0.000
  0.000   0.000   2.000   0.000   0.000   0.000   0.000   0.000   0.000   0.000   0.000   0.000   0.000   0.000   0.000   0.000
  0.000   0.000   0.000   0.000   0.000   0.000   0.000   0.000   0.000   0.000   0.000   0.000   0.000   0.000   0.000   0.000
  0.000   0.000   0.000   0.000   0.000   0.000   0.000   0.000   0.000   0.000   0.000   0.000   0.000   0.000   0.000   0.000
  0.000   0.000   0.000   0.000   0.000   0.000   0.000   0.000   0.000   0.000   0.000   0.000   0.000   0.000   0.000   0.000
  0.000   0.000   0.000   0.000   0.000   0.000   2.000   0.000   0.000   0.000   0.000   0.000   0.000   0.000   0.000   0.000
  0.000   0.000   0.000   0.000   0.000   0.000   0.000   2.000   0.000   0.000   0.000   0.000   0.000   0.000   0.000   0.000
  0.000   0.000   0.000   0.000   0.000   0.000   0.000   0.000   2.000   0.000   0.000   0.000   0.000   0.000   0.000   0.000
  0.000   0.000   0.000   0.000   0.000   0.000   0.000   0.000   0.000   2.000   0.000   0.000   0.000   0.000   0.000   0.000
  0.000   0.000   0.000   0.000   0.000   0.000   0.000   0.000   0.000   0.000   2.000   0.000   0.000   0.000   0.000   0.000
  0.000   0.000   0.000   0.000   0.000   0.000   0.000   0.000   0.000   0.000   0.000   0.000   0.000   0.000   0.000   0.000
  0.000   0.000   0.000   0.000   0.000   0.000   0.000   0.000   0.000   0.000   0.000   0.000   0.000   0.000   0.000   0.000
  0.000   0.000   0.000   0.000   0.000   0.000   0.000   0.000   0.000   0.000   0.000   0.000   0.000   0.000   0.000   0.000
  0.000   0.000   0.000   0.000   0.000   0.000   0.000   0.000   0.000   0.000   0.000   0.000   0.000   0.000   0.000   0.000
  0.000   0.000   0.000   0.000   0.000   0.000   0.000   0.000   0.000   0.000   0.000   0.000   0.000   0.000   0.000   0.000
  0.000   0.000   0.000   0.000   0.000   0.000   0.000   0.000   0.000   0.000   0.000   0.000   0.000   0.000   0.000   0.000
  0.000   0.000   0.000   0.000   0.000   0.000   0.000   0.000   0.000   0.000   0.000   0.000   0.000   0.000   0.000   0.000


------------------------ aborting loop because EDIFF is reached ----------------------------------------



 DIPCOR: dipole corrections for dipol
 direction  3 min pos   264,
 dipolmoment           0.000000      0.000000      0.052338 electrons x Angstroem
 Tr[quadrupol]      -651.730517

 energy correction for charged system         0.000000 eV
 dipol+quadrupol energy correction            0.000550 eV
 added-field ion interaction          0.000000 eV  (added to PSCEN)

 
  *************** adding dipol energy to TOTEN NOW **************** 
 


 total charge     
 
# of ion       s       p       d       tot
------------------------------------------
    1        0.310   6.149   8.900  15.359
    2        0.310   6.149   8.900  15.359
    3        0.310   6.149   8.900  15.359
    4        0.303   6.196   8.888  15.386
    5        0.303   6.196   8.888  15.386
    6        0.303   6.196   8.888  15.386
    7        0.300   6.205   8.877  15.381
    8        0.303   6.192   8.898  15.393
    9        0.300   6.204   8.878  15.382
   10        0.294   6.171   8.914  15.379
   11        0.294   6.171   8.914  15.379
   12        0.294   6.171   8.914  15.379
   13        0.224   6.116   9.025  15.365
   14        1.498   2.761   0.038   4.298
   15        1.518   2.708   0.041   4.267
--------------------------------------------------
tot          6.862  85.733 115.864 208.458
 
    CHARGE:  cpu time    8.4854: real time    8.4859
    FORLOC:  cpu time    0.0303: real time    0.0303
    FORNL :  cpu time   47.8476: real time   47.8785
    STRESS:  cpu time   89.0344: real time   89.0648
    FORCOR:  cpu time   16.4655: real time   16.4907
    FORHAR:  cpu time    0.0751: real time    0.0751
    OFIELD:  cpu time    0.0017: real time    0.0017

  FORCE on cell =-STRESS in cart. coord.  units (eV):
  Direction    XX          YY          ZZ          XY          YZ          ZX
  --------------------------------------------------------------------------------------
  Alpha Z   742.06687   742.06687   742.06687
  Ewald  223043.01669223047.04953************     0.01991    -0.04100    -2.36322
  Hartree237544.05338237546.67606************     0.00078    -0.01959    -1.42526
  E(xc)   -1791.84740 -1791.84556 -1791.95631     0.00005    -0.00004    -0.00125
  Local  ************************468568.41979    -0.01320     0.05948     3.74191
  n-local  -885.80947  -885.79510  -889.78685     0.00066     0.00004    -0.00694
  augment  2360.49035  2360.47735  2367.46509    -0.00562     0.00018     0.01435
  Kinetic  2887.28759  2887.27065  2895.55126    -0.00293     0.00137     0.01589
  Fock        0.00000     0.00000     0.00000     0.00000     0.00000     0.00000
  -------------------------------------------------------------------------------------
  Total      -3.22100    -3.18623    -1.44618    -0.00034     0.00044    -0.02452
  in kB     -11.46164   -11.33791    -5.14612    -0.00121     0.00157    -0.08726
  external pressure =       -9.32 kB  Pullay stress =        0.00 kB


 VOLUME and BASIS-vectors are now :
 -----------------------------------------------------------------------------
  energy-cutoff  :      500.00
  volume of cell :      450.25
      direct lattice vectors                 reciprocal lattice vectors
     4.388135433  0.000000000  0.000000000     0.227887223 -0.131570750  0.000000000
     2.194067717  3.800236760  0.000000000     0.000000000  0.263141500  0.000000000
     0.000000000  0.000000000 27.000000000     0.000000000  0.000000000  0.037037037

  length of vectors
     4.388135433  4.388135433 27.000000000     0.263141500  0.263141500  0.037037037


 FORCES acting on ions
    electron-ion (+dipol)            ewald-force                    non-local-force                 convergence-correction
 -----------------------------------------------------------------------------------------------
   0.457E-01 0.143E+00 0.103E+05   -.116E+00 -.206E+00 -.103E+05   0.694E-01 0.659E-01 -.262E+01   -.324E-03 -.175E-02 -.143E+00
   -.167E+00 -.360E-01 0.103E+05   0.237E+00 -.271E-02 -.103E+05   -.116E+00 0.145E-01 -.262E+01   0.462E-01 0.225E-01 -.138E+00
   0.120E+00 -.104E+00 0.103E+05   -.119E+00 0.208E+00 -.103E+05   0.470E-01 -.728E-01 -.262E+01   -.458E-01 -.316E-01 -.138E+00
   -.337E+01 0.556E+01 0.428E+04   0.361E+01 -.597E+01 -.428E+04   -.225E+00 0.350E+00 -.116E+01   0.118E-01 0.170E-01 -.817E-01
   0.602E+01 -.895E-01 0.428E+04   -.650E+01 0.630E-01 -.428E+04   0.412E+00 -.292E-02 -.116E+01   0.913E-02 0.291E-01 -.904E-01
   -.322E+01 -.546E+01 0.428E+04   0.346E+01 0.591E+01 -.428E+04   -.184E+00 -.339E+00 -.116E+01   -.243E-01 -.570E-01 -.813E-01
   0.782E+00 0.504E+00 -.181E+04   -.774E+00 -.495E+00 0.181E+04   0.440E-02 0.135E-01 -.384E+00   -.178E-01 -.252E-01 0.838E-01
   0.753E-01 -.163E-01 -.176E+04   -.855E-01 0.973E-02 0.176E+04   -.927E-02 -.808E-02 0.858E+00   0.177E-01 0.149E-01 -.183E+00
   -.626E+00 -.493E+00 -.181E+04   0.624E+00 0.490E+00 0.181E+04   0.535E-02 -.698E-02 -.341E+00   -.685E-03 0.127E-01 -.307E-01
   0.668E+01 0.125E+02 -.786E+04   -.806E+01 -.149E+02 0.785E+04   0.137E+01 0.235E+01 0.615E+01   0.104E-01 0.793E-03 0.410E-01
   -.140E+02 0.102E+00 -.786E+04   0.167E+02 -.102E+00 0.786E+04   -.275E+01 0.338E-01 0.622E+01   0.599E-01 -.362E-01 -.715E-01
   0.773E+01 -.127E+02 -.786E+04   -.904E+01 0.150E+02 0.786E+04   0.137E+01 -.237E+01 0.615E+01   -.586E-01 0.215E-01 0.355E-01
   0.139E+00 -.119E-01 -.780E+04   -.145E+00 0.534E-02 0.780E+04   -.111E-03 -.118E-01 -.170E+01   0.634E-02 0.184E-01 0.272E+00
   0.220E-01 -.339E-02 -.317E+04   -.236E-01 0.367E-02 0.317E+04   0.165E-02 0.868E-04 -.225E+01   0.107E-03 -.258E-03 0.613E-01
   -.180E+00 0.435E-01 -.391E+04   0.188E+00 -.442E-01 0.391E+04   -.688E-02 0.828E-03 -.252E+01   -.993E-03 -.357E-03 0.263E+00
 -----------------------------------------------------------------------------------------------
   -.360E-02 0.278E-02 -.667E+00   0.390E-12 0.386E-14 -.150E-10   -.946E-02 0.122E-01 0.851E+00   0.133E-01 -.155E-01 -.200E+00
 
 
 POSITION                                       TOTAL-FORCE (eV/Angst)
 -----------------------------------------------------------------------------------
      0.00000      0.00000      0.00000        -0.001260      0.001628     -0.014010
      2.19407      1.26675      0.00000        -0.000191     -0.001740     -0.014245
      4.38814      2.53349      0.00000         0.001547      0.000079     -0.014047
      1.46271      0.00000      2.06860         0.034284     -0.052863      0.014174
      3.65678      1.26675      2.06860        -0.057690     -0.000357      0.013922
      1.46271      2.53349      2.06860         0.032241      0.052965      0.013316
      2.92955      0.00023      4.15558        -0.005029     -0.003394     -0.002949
      0.73518      1.26671      4.12634        -0.001770      0.000258     -0.011470
      2.92890      2.53321      4.15551         0.002806      0.002949     -0.005385
      2.19346      3.78911      6.20827        -0.000992     -0.000638     -0.005373
      2.21296      1.26684      6.20842        -0.001241     -0.002411     -0.006973
      4.38784      2.54444      6.20856        -0.003176      0.003373     -0.007887
      5.11955      1.26686     11.24775         0.000213      0.000148      0.010624
      2.92567      0.00010     11.80271         0.000167      0.000145      0.020599
      0.73669      1.26656      8.46080         0.000093     -0.000142      0.009705
 -----------------------------------------------------------------------------------
    total drift:                                0.000190     -0.000491     -0.016096


--------------------------------------------------------------------------------------------------------



  FREE ENERGIE OF THE ION-ELECTRON SYSTEM (eV)
  ---------------------------------------------------
  free  energy   TOTEN  =         7.33262019 eV

  energy  without entropy=        7.35672444  energy(sigma->0) =        7.34467232
 


--------------------------------------------------------------------------------------------------------


    POTLOK:  cpu time   17.2170: real time   17.2189


--------------------------------------------------------------------------------------------------------


     LOOP+:  cpu time 1836.6982: real time 1837.9504
 vacuum level on the upper side and lower side of the slab         5.758         5.747
    4ORBIT:  cpu time    0.0000: real time    0.0000
 


 total charge     
 
# of ion       s       p       d       tot
------------------------------------------
    1        0.310   6.149   8.900  15.359
    2        0.310   6.149   8.900  15.359
    3        0.310   6.149   8.900  15.359
    4        0.303   6.196   8.888  15.386
    5        0.303   6.196   8.888  15.386
    6        0.303   6.196   8.888  15.386
    7        0.300   6.205   8.877  15.381
    8        0.303   6.192   8.898  15.393
    9        0.300   6.204   8.878  15.382
   10        0.294   6.171   8.914  15.379
   11        0.294   6.171   8.914  15.379
   12        0.294   6.171   8.914  15.379
   13        0.224   6.116   9.025  15.365
   14        1.498   2.761   0.038   4.298
   15        1.518   2.708   0.041   4.267
--------------------------------------------------
tot          6.862  85.733 115.864 208.458
 

 total amount of memory used by VASP MPI-rank0   578020. kBytes
=======================================================================

   base      :      30000. kBytes
   nonl-proj :     247244. kBytes
   fftplans  :      30708. kBytes
   grid      :      19718. kBytes
   one-center:        233. kBytes
   wavefun   :     250117. kBytes
 
  
  
 General timing and accounting informations for this job:
 ========================================================
  
                  Total CPU time used (sec):     1868.074
                            User time (sec):     1860.243
                          System time (sec):        7.831
                         Elapsed time (sec):     1870.946
  
                   Maximum memory used (kb):      788504.
                   Average memory used (kb):           0.
  
                          Minor page faults:      1928047
                          Major page faults:            0
                 Voluntary context switches:          718
